<?xml version="1.0" encoding="UTF-8"?>

<!-- generated on Wed Jul 29 12:19:50 2020 by Eclipse SUMO Version 1.1.0
<configuration xmlns:xsi="http://www.w3.org/2001/XMLSchema-instance" xsi:noNamespaceSchemaLocation="http://sumo.dlr.de/xsd/sumoConfiguration.xsd">

    <input>
        <net-file value="net2.net.xml"/>
        <route-files value="my_route.rou.xml"/>
        <additional-files value="addFile.add.xml"/>
    </input>

    <output>
        <tripinfo-output value="tripInfo.xml"/>
    </output>

    <time>
        <begin value="0"/>
        <end value="50000"/>
        <step-length value=".1"/>
    </time>

    <traci_server>
        <remote-port value="36089"/>
    </traci_server>

    <gui_only>
        <tracker-interval value="0.1"/>
    </gui_only>

</configuration>
-->

<detector xmlns:xsi="http://www.w3.org/2001/XMLSchema-instance" xsi:noNamespaceSchemaLocation="http://sumo.dlr.de/xsd/det_e1_file.xsd">
    <interval begin="0.00" end="245.20" id="loop43_0" nVehContrib="44" flow="646.00" occupancy="2.60" speed="14.00" length="2.00" nVehEntered="44"/>
    <interval begin="0.00" end="245.20" id="loop43_1" nVehContrib="11" flow="161.50" occupancy="0.59" speed="15.27" length="2.00" nVehEntered="11"/>
    <interval begin="0.00" end="245.20" id="loop13_0" nVehContrib="62" flow="910.28" occupancy="5.10" speed="12.09" length="2.00" nVehEntered="64"/>
    <interval begin="0.00" end="245.20" id="loop13_1" nVehContrib="35" flow="513.87" occupancy="3.04" speed="12.47" length="2.00" nVehEntered="35"/>
    <interval begin="0.00" end="245.20" id="loop23_0" nVehContrib="63" flow="924.96" occupancy="5.28" speed="12.09" length="2.00" nVehEntered="63"/>
    <interval begin="0.00" end="245.20" id="loop23_1" nVehContrib="36" flow="528.55" occupancy="3.17" speed="12.49" length="2.00" nVehEntered="36"/>
    <interval begin="0.00" end="245.20" id="loop53_0" nVehContrib="42" flow="616.64" occupancy="2.41" speed="14.36" length="2.00" nVehEntered="42"/>
    <interval begin="0.00" end="245.20" id="loop53_1" nVehContrib="9" flow="132.14" occupancy="0.52" speed="14.74" length="2.00" nVehEntered="9"/>
    <interval begin="0.00" end="245.20" id="loop35_0" nVehContrib="30" flow="440.46" occupancy="1.90" speed="13.00" length="2.00" nVehEntered="30"/>
    <interval begin="0.00" end="245.20" id="loop35_1" nVehContrib="25" flow="367.05" occupancy="1.49" speed="13.93" length="2.00" nVehEntered="25"/>
    <interval begin="0.00" end="245.20" id="loop32_0" nVehContrib="53" flow="778.14" occupancy="3.47" speed="12.61" length="2.00" nVehEntered="53"/>
    <interval begin="0.00" end="245.20" id="loop32_1" nVehContrib="44" flow="646.00" occupancy="2.60" speed="14.00" length="2.00" nVehEntered="44"/>
    <interval begin="0.00" end="245.20" id="loop31_0" nVehContrib="50" flow="734.09" occupancy="3.35" speed="12.43" length="2.00" nVehEntered="50"/>
    <interval begin="0.00" end="245.20" id="loop31_1" nVehContrib="49" flow="719.41" occupancy="2.87" speed="14.13" length="2.00" nVehEntered="49"/>
    <interval begin="0.00" end="245.20" id="loop34_0" nVehContrib="31" flow="455.14" occupancy="1.89" speed="13.66" length="2.00" nVehEntered="31"/>
    <interval begin="0.00" end="245.20" id="loop34_1" nVehContrib="20" flow="293.64" occupancy="1.10" speed="14.97" length="2.00" nVehEntered="20"/>
</detector>
