<?xml version="1.0" encoding="UTF-8"?>

<!-- generated on Wed Feb  6 12:00:39 2019 by Eclipse SUMO Version 1.1.0
<configuration xmlns:xsi="http://www.w3.org/2001/XMLSchema-instance" xsi:noNamespaceSchemaLocation="http://sumo.dlr.de/xsd/sumoConfiguration.xsd">

    <input>
        <net-file value="net2.net.xml"/>
        <route-files value="my_route.rou.xml"/>
        <additional-files value="edgeData.add.xml"/>
    </input>

    <output>
        <tripinfo-output value="tripInfo.xml"/>
    </output>

    <time>
        <begin value="0"/>
        <end value="2000"/>
    </time>

</configuration>
-->

<meandata xmlns:xsi="http://www.w3.org/2001/XMLSchema-instance" xsi:noNamespaceSchemaLocation="http://sumo.dlr.de/xsd/meandata_file.xsd">
    <interval begin="0.00" end="2000.00" id="1to3">
        <edge id="1to3" sampledSeconds="3637.18" traveltime="23.96" overlapTraveltime="24.40" density="45.92" occupancy="4.55" waitingTime="2029.00" speed="1.71" departed="157" arrived="0" entered="0" left="157" laneChangedFrom="43" laneChangedTo="43"/>
        <edge id="2to3" sampledSeconds="3608.32" traveltime="24.08" overlapTraveltime="24.52" density="45.56" occupancy="4.51" waitingTime="2016.00" speed="1.70" departed="155" arrived="0" entered="0" left="155" laneChangedFrom="43" laneChangedTo="43"/>
        <edge id="3to1" sampledSeconds="610.74" traveltime="3.81" overlapTraveltime="3.97" density="7.71" occupancy="0.74" waitingTime="0.00" speed="10.47" departed="0" arrived="155" entered="155" left="0" laneChangedFrom="0" laneChangedTo="0"/>
        <edge id="3to2" sampledSeconds="618.96" traveltime="3.81" overlapTraveltime="3.98" density="7.82" occupancy="0.75" waitingTime="0.00" speed="10.46" departed="0" arrived="157" entered="157" left="0" laneChangedFrom="0" laneChangedTo="0"/>
        <edge id="3to4" sampledSeconds="568.15" traveltime="3.84" overlapTraveltime="4.01" density="7.17" occupancy="0.68" waitingTime="0.00" speed="10.38" departed="0" arrived="143" entered="143" left="0" laneChangedFrom="0" laneChangedTo="0"/>
        <edge id="3to5" sampledSeconds="634.13" traveltime="3.86" overlapTraveltime="4.03" density="8.01" occupancy="0.76" waitingTime="0.00" speed="10.33" departed="0" arrived="159" entered="159" left="0" laneChangedFrom="0" laneChangedTo="0"/>
        <edge id="4to3" sampledSeconds="4043.08" traveltime="26.33" overlapTraveltime="26.78" density="51.05" occupancy="5.06" waitingTime="2360.00" speed="1.55" departed="159" arrived="0" entered="0" left="159" laneChangedFrom="49" laneChangedTo="49"/>
        <edge id="5to3" sampledSeconds="3294.48" traveltime="23.80" overlapTraveltime="24.26" density="41.60" occupancy="4.12" waitingTime="1818.00" speed="1.71" departed="143" arrived="0" entered="0" left="143" laneChangedFrom="40" laneChangedTo="40"/>
    </interval>
</meandata>
