<?xml version="1.0" encoding="UTF-8"?>

<!-- generated on Wed Jul 29 12:19:50 2020 by Eclipse SUMO Version 1.1.0
<configuration xmlns:xsi="http://www.w3.org/2001/XMLSchema-instance" xsi:noNamespaceSchemaLocation="http://sumo.dlr.de/xsd/sumoConfiguration.xsd">

    <input>
        <net-file value="net2.net.xml"/>
        <route-files value="my_route.rou.xml"/>
        <additional-files value="addFile.add.xml"/>
    </input>

    <output>
        <tripinfo-output value="tripInfo.xml"/>
    </output>

    <time>
        <begin value="0"/>
        <end value="50000"/>
        <step-length value=".1"/>
    </time>

    <traci_server>
        <remote-port value="36089"/>
    </traci_server>

    <gui_only>
        <tracker-interval value="0.1"/>
    </gui_only>

</configuration>
-->

<tripinfos xmlns:xsi="http://www.w3.org/2001/XMLSchema-instance" xsi:noNamespaceSchemaLocation="http://sumo.dlr.de/xsd/tripinfo_file.xsd">
    <tripinfo id="veh0" depart="2.00" departLane="2to3_0" departPos="2.10" departSpeed="0.00" departDelay="0.00" arrival="28.80" arrivalLane="3to1_0" arrivalPos="189.60" arrivalSpeed="15.90" duration="26.80" routeLength="397.90" waitingTime="0.00" waitingCount="0" stopTime="0.00" timeLoss="1.70" rerouteNo="0" devices="tripinfo_veh0" vType="car" speedFactor="1.06" vaporized=""/>
    <tripinfo id="veh3" depart="4.00" departLane="2to3_0" departPos="2.10" departSpeed="0.00" departDelay="0.00" arrival="30.40" arrivalLane="3to1_0" arrivalPos="189.60" arrivalSpeed="16.24" duration="26.40" routeLength="397.90" waitingTime="0.00" waitingCount="0" stopTime="0.00" timeLoss="1.86" rerouteNo="0" devices="tripinfo_veh3" vType="car" speedFactor="1.08" vaporized=""/>
    <tripinfo id="veh4" depart="4.00" departLane="1to3_0" departPos="2.10" departSpeed="0.00" departDelay="0.00" arrival="31.60" arrivalLane="3to2_1" arrivalPos="189.60" arrivalSpeed="15.45" duration="27.60" routeLength="397.90" waitingTime="0.00" waitingCount="0" stopTime="0.00" timeLoss="1.84" rerouteNo="0" devices="tripinfo_veh4" vType="car" speedFactor="1.03" vaporized=""/>
    <tripinfo id="veh1" depart="2.00" departLane="1to3_0" departPos="2.10" departSpeed="0.00" departDelay="0.00" arrival="31.70" arrivalLane="3to2_0" arrivalPos="189.60" arrivalSpeed="14.07" duration="29.70" routeLength="397.90" waitingTime="0.00" waitingCount="0" stopTime="0.00" timeLoss="1.41" rerouteNo="0" devices="tripinfo_veh1" vType="car" speedFactor="0.94" vaporized=""/>
    <tripinfo id="veh6" depart="6.00" departLane="2to3_0" departPos="2.10" departSpeed="0.00" departDelay="0.00" arrival="33.00" arrivalLane="3to1_0" arrivalPos="189.60" arrivalSpeed="15.69" duration="27.00" routeLength="397.90" waitingTime="0.00" waitingCount="0" stopTime="0.00" timeLoss="1.63" rerouteNo="0" devices="tripinfo_veh6" vType="car" speedFactor="1.05" vaporized=""/>
    <tripinfo id="veh7" depart="6.00" departLane="1to3_0" departPos="2.10" departSpeed="0.00" departDelay="0.00" arrival="37.30" arrivalLane="3to2_0" arrivalPos="189.60" arrivalSpeed="13.29" duration="31.30" routeLength="397.90" waitingTime="0.00" waitingCount="0" stopTime="0.00" timeLoss="1.30" rerouteNo="0" devices="tripinfo_veh7" vType="car" speedFactor="0.89" vaporized=""/>
    <tripinfo id="veh11" depart="10.00" departLane="2to3_0" departPos="2.10" departSpeed="0.00" departDelay="0.00" arrival="37.70" arrivalLane="3to1_1" arrivalPos="189.60" arrivalSpeed="15.39" duration="27.70" routeLength="397.90" waitingTime="0.00" waitingCount="0" stopTime="0.00" timeLoss="1.80" rerouteNo="0" devices="tripinfo_veh11" vType="car" speedFactor="1.03" vaporized=""/>
    <tripinfo id="veh12" depart="10.00" departLane="1to3_0" departPos="2.10" departSpeed="0.00" departDelay="0.00" arrival="38.40" arrivalLane="3to2_0" arrivalPos="189.60" arrivalSpeed="15.71" duration="28.40" routeLength="397.90" waitingTime="0.00" waitingCount="0" stopTime="0.00" timeLoss="3.07" rerouteNo="0" devices="tripinfo_veh12" vType="car" speedFactor="1.05" vaporized=""/>
    <tripinfo id="veh9" depart="8.00" departLane="2to3_0" departPos="2.10" departSpeed="0.00" departDelay="0.00" arrival="40.20" arrivalLane="3to1_0" arrivalPos="189.60" arrivalSpeed="12.85" duration="32.20" routeLength="397.90" waitingTime="0.00" waitingCount="0" stopTime="0.00" timeLoss="1.21" rerouteNo="0" devices="tripinfo_veh9" vType="car" speedFactor="0.86" vaporized=""/>
    <tripinfo id="veh14" depart="12.00" departLane="1to3_0" departPos="2.10" departSpeed="0.00" departDelay="0.00" arrival="40.30" arrivalLane="3to2_0" arrivalPos="189.60" arrivalSpeed="14.87" duration="28.30" routeLength="397.90" waitingTime="0.00" waitingCount="0" stopTime="0.00" timeLoss="1.54" rerouteNo="0" devices="tripinfo_veh14" vType="car" speedFactor="0.99" vaporized=""/>
    <tripinfo id="veh13" depart="12.00" departLane="2to3_0" departPos="2.10" departSpeed="0.00" departDelay="0.00" arrival="41.30" arrivalLane="3to1_0" arrivalPos="189.60" arrivalSpeed="16.84" duration="29.30" routeLength="397.90" waitingTime="0.00" waitingCount="0" stopTime="0.00" timeLoss="5.65" rerouteNo="0" devices="tripinfo_veh13" vType="car" speedFactor="1.12" vaporized=""/>
    <tripinfo id="veh17" depart="14.00" departLane="1to3_0" departPos="2.10" departSpeed="0.00" departDelay="0.00" arrival="43.60" arrivalLane="3to2_0" arrivalPos="189.60" arrivalSpeed="14.12" duration="29.60" routeLength="397.90" waitingTime="0.00" waitingCount="0" stopTime="0.00" timeLoss="1.36" rerouteNo="0" devices="tripinfo_veh17" vType="car" speedFactor="0.94" vaporized=""/>
    <tripinfo id="veh20" depart="16.00" departLane="2to3_0" departPos="2.10" departSpeed="0.00" departDelay="0.00" arrival="43.90" arrivalLane="3to1_1" arrivalPos="189.60" arrivalSpeed="15.27" duration="27.90" routeLength="397.90" waitingTime="0.00" waitingCount="0" stopTime="0.00" timeLoss="1.79" rerouteNo="0" devices="tripinfo_veh20" vType="car" speedFactor="1.02" vaporized=""/>
    <tripinfo id="veh21" depart="16.00" departLane="1to3_0" departPos="2.10" departSpeed="0.00" departDelay="0.00" arrival="44.10" arrivalLane="3to2_1" arrivalPos="189.60" arrivalSpeed="15.15" duration="28.10" routeLength="397.90" waitingTime="0.00" waitingCount="0" stopTime="0.00" timeLoss="1.79" rerouteNo="0" devices="tripinfo_veh21" vType="car" speedFactor="1.01" vaporized=""/>
    <tripinfo id="veh28" depart="20.00" departLane="2to3_0" departPos="2.10" departSpeed="0.00" departDelay="0.00" arrival="45.40" arrivalLane="3to1_1" arrivalPos="189.60" arrivalSpeed="16.98" duration="25.40" routeLength="397.90" waitingTime="0.00" waitingCount="0" stopTime="0.00" timeLoss="1.89" rerouteNo="0" devices="tripinfo_veh28" vType="car" speedFactor="1.13" vaporized=""/>
    <tripinfo id="veh16" depart="14.00" departLane="2to3_0" departPos="2.10" departSpeed="0.00" departDelay="0.00" arrival="45.50" arrivalLane="3to1_0" arrivalPos="189.60" arrivalSpeed="13.18" duration="31.50" routeLength="397.90" waitingTime="0.00" waitingCount="0" stopTime="0.00" timeLoss="1.27" rerouteNo="0" devices="tripinfo_veh16" vType="car" speedFactor="0.88" vaporized=""/>
    <tripinfo id="veh30" depart="22.00" departLane="2to3_0" departPos="2.10" departSpeed="0.00" departDelay="0.00" arrival="46.90" arrivalLane="3to1_1" arrivalPos="189.60" arrivalSpeed="17.68" duration="24.90" routeLength="397.90" waitingTime="0.00" waitingCount="0" stopTime="0.00" timeLoss="2.37" rerouteNo="0" devices="tripinfo_veh30" vType="car" speedFactor="1.18" vaporized=""/>
    <tripinfo id="veh31" depart="22.00" departLane="1to3_0" departPos="2.10" departSpeed="0.00" departDelay="0.00" arrival="47.00" arrivalLane="3to2_1" arrivalPos="189.60" arrivalSpeed="17.32" duration="25.00" routeLength="397.90" waitingTime="0.00" waitingCount="0" stopTime="0.00" timeLoss="2.02" rerouteNo="0" devices="tripinfo_veh31" vType="car" speedFactor="1.15" vaporized=""/>
    <tripinfo id="veh25" depart="18.00" departLane="1to3_0" departPos="2.10" departSpeed="0.00" departDelay="0.00" arrival="49.60" arrivalLane="3to2_0" arrivalPos="189.60" arrivalSpeed="13.09" duration="31.60" routeLength="397.90" waitingTime="0.00" waitingCount="0" stopTime="0.00" timeLoss="1.19" rerouteNo="0" devices="tripinfo_veh25" vType="car" speedFactor="0.87" vaporized=""/>
    <tripinfo id="veh29" depart="20.00" departLane="1to3_0" departPos="2.10" departSpeed="0.00" departDelay="0.00" arrival="50.90" arrivalLane="3to2_0" arrivalPos="189.60" arrivalSpeed="13.97" duration="30.90" routeLength="397.90" waitingTime="0.00" waitingCount="0" stopTime="0.00" timeLoss="2.37" rerouteNo="0" devices="tripinfo_veh29" vType="car" speedFactor="0.93" vaporized=""/>
    <tripinfo id="veh24" depart="18.00" departLane="2to3_0" departPos="2.10" departSpeed="0.00" departDelay="0.00" arrival="51.30" arrivalLane="3to1_0" arrivalPos="189.60" arrivalSpeed="12.38" duration="33.30" routeLength="397.90" waitingTime="0.00" waitingCount="0" stopTime="0.00" timeLoss="1.15" rerouteNo="0" devices="tripinfo_veh24" vType="car" speedFactor="0.83" vaporized=""/>
    <tripinfo id="veh38" depart="26.00" departLane="2to3_0" departPos="2.10" departSpeed="0.00" departDelay="0.00" arrival="52.10" arrivalLane="3to1_1" arrivalPos="189.60" arrivalSpeed="16.53" duration="26.10" routeLength="397.90" waitingTime="0.00" waitingCount="0" stopTime="0.00" timeLoss="1.97" rerouteNo="0" devices="tripinfo_veh38" vType="car" speedFactor="1.10" vaporized=""/>
    <tripinfo id="veh35" depart="24.00" departLane="1to3_0" departPos="2.10" departSpeed="0.00" departDelay="0.00" arrival="52.10" arrivalLane="3to2_0" arrivalPos="189.60" arrivalSpeed="15.30" duration="28.10" routeLength="397.90" waitingTime="0.00" waitingCount="0" stopTime="0.00" timeLoss="2.06" rerouteNo="0" devices="tripinfo_veh35" vType="car" speedFactor="1.02" vaporized=""/>
    <tripinfo id="veh34" depart="24.00" departLane="2to3_0" departPos="2.10" departSpeed="0.00" departDelay="0.00" arrival="52.50" arrivalLane="3to1_0" arrivalPos="189.60" arrivalSpeed="14.92" duration="28.50" routeLength="397.90" waitingTime="0.00" waitingCount="0" stopTime="0.00" timeLoss="1.84" rerouteNo="0" devices="tripinfo_veh34" vType="car" speedFactor="0.99" vaporized=""/>
    <tripinfo id="veh42" depart="28.00" departLane="1to3_0" departPos="2.10" departSpeed="0.00" departDelay="0.00" arrival="54.30" arrivalLane="3to2_1" arrivalPos="189.60" arrivalSpeed="16.38" duration="26.30" routeLength="397.90" waitingTime="0.00" waitingCount="0" stopTime="0.00" timeLoss="1.97" rerouteNo="0" devices="tripinfo_veh42" vType="car" speedFactor="1.09" vaporized=""/>
    <tripinfo id="veh45" depart="30.00" departLane="2to3_0" departPos="2.10" departSpeed="0.00" departDelay="0.00" arrival="56.40" arrivalLane="3to1_1" arrivalPos="189.60" arrivalSpeed="16.32" duration="26.40" routeLength="397.90" waitingTime="0.00" waitingCount="0" stopTime="0.00" timeLoss="2.02" rerouteNo="0" devices="tripinfo_veh45" vType="car" speedFactor="1.09" vaporized=""/>
    <tripinfo id="veh39" depart="26.00" departLane="1to3_0" departPos="2.10" departSpeed="0.00" departDelay="0.00" arrival="56.80" arrivalLane="3to2_0" arrivalPos="189.60" arrivalSpeed="13.51" duration="30.80" routeLength="397.90" waitingTime="0.00" waitingCount="0" stopTime="0.00" timeLoss="1.33" rerouteNo="0" devices="tripinfo_veh39" vType="car" speedFactor="0.90" vaporized=""/>
    <tripinfo id="veh41" depart="28.00" departLane="2to3_0" departPos="2.10" departSpeed="0.00" departDelay="0.00" arrival="57.20" arrivalLane="3to1_0" arrivalPos="189.60" arrivalSpeed="14.36" duration="29.20" routeLength="397.90" waitingTime="0.00" waitingCount="0" stopTime="0.00" timeLoss="1.48" rerouteNo="0" devices="tripinfo_veh41" vType="car" speedFactor="0.96" vaporized=""/>
    <tripinfo id="veh46" depart="30.00" departLane="1to3_0" departPos="2.10" departSpeed="0.00" departDelay="0.00" arrival="58.20" arrivalLane="3to2_0" arrivalPos="189.60" arrivalSpeed="14.96" duration="28.20" routeLength="397.90" waitingTime="0.00" waitingCount="0" stopTime="0.00" timeLoss="1.55" rerouteNo="0" devices="tripinfo_veh46" vType="car" speedFactor="1.00" vaporized=""/>
    <tripinfo id="veh51" depart="34.00" departLane="2to3_0" departPos="2.10" departSpeed="0.00" departDelay="0.00" arrival="58.70" arrivalLane="3to1_1" arrivalPos="189.60" arrivalSpeed="17.53" duration="24.70" routeLength="397.90" waitingTime="0.00" waitingCount="0" stopTime="0.00" timeLoss="1.96" rerouteNo="0" devices="tripinfo_veh51" vType="car" speedFactor="1.17" vaporized=""/>
    <tripinfo id="veh52" depart="34.00" departLane="1to3_0" departPos="2.10" departSpeed="0.00" departDelay="0.00" arrival="61.90" arrivalLane="3to2_1" arrivalPos="189.60" arrivalSpeed="15.25" duration="27.90" routeLength="397.90" waitingTime="0.00" waitingCount="0" stopTime="0.00" timeLoss="1.78" rerouteNo="0" devices="tripinfo_veh52" vType="car" speedFactor="1.02" vaporized=""/>
    <tripinfo id="veh48" depart="32.00" departLane="2to3_0" departPos="2.10" departSpeed="0.00" departDelay="0.00" arrival="63.50" arrivalLane="3to1_0" arrivalPos="189.60" arrivalSpeed="13.15" duration="31.50" routeLength="397.90" waitingTime="0.00" waitingCount="0" stopTime="0.00" timeLoss="1.25" rerouteNo="0" devices="tripinfo_veh48" vType="car" speedFactor="0.88" vaporized=""/>
    <tripinfo id="veh49" depart="32.00" departLane="1to3_0" departPos="2.10" departSpeed="0.00" departDelay="0.00" arrival="64.40" arrivalLane="3to2_0" arrivalPos="189.60" arrivalSpeed="12.76" duration="32.40" routeLength="397.90" waitingTime="0.00" waitingCount="0" stopTime="0.00" timeLoss="1.20" rerouteNo="0" devices="tripinfo_veh49" vType="car" speedFactor="0.85" vaporized=""/>
    <tripinfo id="veh10" depart="10.00" departLane="5to3_0" departPos="2.10" departSpeed="0.00" departDelay="0.00" arrival="65.30" arrivalLane="3to4_1" arrivalPos="189.60" arrivalSpeed="16.36" duration="55.30" routeLength="397.90" waitingTime="27.20" waitingCount="1" stopTime="0.00" timeLoss="30.91" rerouteNo="0" devices="tripinfo_veh10" vType="car" speedFactor="1.09" vaporized=""/>
    <tripinfo id="veh2" depart="4.00" departLane="4to3_0" departPos="2.10" departSpeed="0.00" departDelay="0.00" arrival="66.20" arrivalLane="3to5_0" arrivalPos="189.60" arrivalSpeed="15.16" duration="62.20" routeLength="397.90" waitingTime="32.70" waitingCount="1" stopTime="0.00" timeLoss="35.91" rerouteNo="0" devices="tripinfo_veh2" vType="car" speedFactor="1.01" vaporized=""/>
    <tripinfo id="veh19" depart="16.00" departLane="5to3_0" departPos="2.10" departSpeed="0.00" departDelay="0.00" arrival="66.50" arrivalLane="3to4_1" arrivalPos="189.60" arrivalSpeed="17.37" duration="50.50" routeLength="397.90" waitingTime="18.60" waitingCount="1" stopTime="0.00" timeLoss="27.53" rerouteNo="0" devices="tripinfo_veh19" vType="car" speedFactor="1.16" vaporized=""/>
    <tripinfo id="veh8" depart="8.00" departLane="4to3_0" departPos="2.10" departSpeed="0.00" departDelay="0.00" arrival="67.20" arrivalLane="3to5_1" arrivalPos="189.60" arrivalSpeed="14.07" duration="59.20" routeLength="397.90" waitingTime="27.60" waitingCount="1" stopTime="0.00" timeLoss="30.87" rerouteNo="0" devices="tripinfo_veh8" vType="car" speedFactor="0.94" vaporized=""/>
    <tripinfo id="veh15" depart="14.00" departLane="4to3_0" departPos="2.10" departSpeed="0.00" departDelay="0.00" arrival="68.30" arrivalLane="3to5_0" arrivalPos="189.60" arrivalSpeed="13.90" duration="54.30" routeLength="397.90" waitingTime="18.70" waitingCount="1" stopTime="0.00" timeLoss="25.68" rerouteNo="0" devices="tripinfo_veh15" vType="car" speedFactor="0.93" vaporized=""/>
    <tripinfo id="veh18" depart="16.00" departLane="4to3_0" departPos="2.10" departSpeed="0.00" departDelay="0.00" arrival="68.50" arrivalLane="3to5_1" arrivalPos="189.60" arrivalSpeed="14.04" duration="52.50" routeLength="397.90" waitingTime="16.50" waitingCount="1" stopTime="0.00" timeLoss="24.14" rerouteNo="0" devices="tripinfo_veh18" vType="car" speedFactor="0.94" vaporized=""/>
    <tripinfo id="veh5" depart="6.00" departLane="5to3_0" departPos="2.10" departSpeed="0.00" departDelay="0.00" arrival="69.00" arrivalLane="3to4_0" arrivalPos="189.60" arrivalSpeed="12.47" duration="63.00" routeLength="397.90" waitingTime="28.40" waitingCount="1" stopTime="0.00" timeLoss="31.03" rerouteNo="0" devices="tripinfo_veh5" vType="car" speedFactor="0.83" vaporized=""/>
    <tripinfo id="veh27" depart="20.00" departLane="5to3_0" departPos="2.10" departSpeed="0.00" departDelay="0.00" arrival="69.00" arrivalLane="3to4_1" arrivalPos="189.60" arrivalSpeed="14.23" duration="49.00" routeLength="397.90" waitingTime="13.30" waitingCount="1" stopTime="0.00" timeLoss="21.04" rerouteNo="0" devices="tripinfo_veh27" vType="car" speedFactor="0.95" vaporized=""/>
    <tripinfo id="veh22" depart="18.00" departLane="4to3_0" departPos="2.10" departSpeed="0.00" departDelay="0.00" arrival="69.60" arrivalLane="3to5_0" arrivalPos="189.60" arrivalSpeed="14.63" duration="51.60" routeLength="397.90" waitingTime="15.60" waitingCount="1" stopTime="0.00" timeLoss="24.35" rerouteNo="0" devices="tripinfo_veh22" vType="car" speedFactor="0.98" vaporized=""/>
    <tripinfo id="veh26" depart="20.00" departLane="4to3_0" departPos="2.10" departSpeed="0.00" departDelay="0.00" arrival="70.00" arrivalLane="3to5_1" arrivalPos="189.60" arrivalSpeed="13.76" duration="50.00" routeLength="397.90" waitingTime="12.90" waitingCount="1" stopTime="0.00" timeLoss="21.00" rerouteNo="0" devices="tripinfo_veh26" vType="car" speedFactor="0.92" vaporized=""/>
    <tripinfo id="veh33" depart="24.00" departLane="5to3_0" departPos="2.10" departSpeed="0.00" departDelay="0.00" arrival="70.10" arrivalLane="3to4_1" arrivalPos="189.60" arrivalSpeed="17.58" duration="46.10" routeLength="397.90" waitingTime="11.20" waitingCount="1" stopTime="0.00" timeLoss="23.46" rerouteNo="0" devices="tripinfo_veh33" vType="car" speedFactor="1.17" vaporized=""/>
    <tripinfo id="veh23" depart="18.00" departLane="5to3_0" departPos="2.10" departSpeed="0.00" departDelay="0.00" arrival="70.30" arrivalLane="3to4_0" arrivalPos="189.60" arrivalSpeed="13.34" duration="52.30" routeLength="397.90" waitingTime="14.20" waitingCount="1" stopTime="0.00" timeLoss="22.41" rerouteNo="0" devices="tripinfo_veh23" vType="car" speedFactor="0.89" vaporized=""/>
    <tripinfo id="veh32" depart="24.00" departLane="4to3_0" departPos="2.10" departSpeed="0.00" departDelay="0.00" arrival="70.80" arrivalLane="3to5_0" arrivalPos="189.60" arrivalSpeed="15.08" duration="46.80" routeLength="397.90" waitingTime="10.70" waitingCount="1" stopTime="0.00" timeLoss="20.41" rerouteNo="0" devices="tripinfo_veh32" vType="car" speedFactor="1.01" vaporized=""/>
    <tripinfo id="veh36" depart="26.00" departLane="4to3_0" departPos="2.10" departSpeed="0.00" departDelay="0.00" arrival="71.20" arrivalLane="3to5_1" arrivalPos="189.60" arrivalSpeed="14.60" duration="45.20" routeLength="397.90" waitingTime="8.20" waitingCount="1" stopTime="0.00" timeLoss="17.92" rerouteNo="0" devices="tripinfo_veh36" vType="car" speedFactor="0.97" vaporized=""/>
    <tripinfo id="veh37" depart="26.00" departLane="5to3_0" departPos="2.10" departSpeed="0.00" departDelay="0.00" arrival="71.40" arrivalLane="3to4_0" arrivalPos="189.60" arrivalSpeed="17.69" duration="45.40" routeLength="397.90" waitingTime="9.20" waitingCount="1" stopTime="0.00" timeLoss="22.82" rerouteNo="0" devices="tripinfo_veh37" vType="car" speedFactor="1.18" vaporized=""/>
    <tripinfo id="veh44" depart="30.00" departLane="5to3_0" departPos="2.10" departSpeed="0.00" departDelay="0.00" arrival="71.40" arrivalLane="3to4_1" arrivalPos="189.60" arrivalSpeed="15.65" duration="41.40" routeLength="397.90" waitingTime="5.50" waitingCount="1" stopTime="0.00" timeLoss="15.98" rerouteNo="0" devices="tripinfo_veh44" vType="car" speedFactor="1.04" vaporized=""/>
    <tripinfo id="veh43" depart="30.00" departLane="4to3_0" departPos="2.10" departSpeed="0.00" departDelay="0.00" arrival="72.10" arrivalLane="3to5_0" arrivalPos="189.60" arrivalSpeed="15.57" duration="42.10" routeLength="397.90" waitingTime="5.70" waitingCount="1" stopTime="0.00" timeLoss="16.45" rerouteNo="0" devices="tripinfo_veh43" vType="car" speedFactor="1.04" vaporized=""/>
    <tripinfo id="veh40" depart="28.00" departLane="5to3_0" departPos="2.10" departSpeed="0.00" departDelay="0.00" arrival="72.60" arrivalLane="3to4_0" arrivalPos="189.60" arrivalSpeed="15.46" duration="44.60" routeLength="397.90" waitingTime="6.60" waitingCount="1" stopTime="0.00" timeLoss="18.78" rerouteNo="0" devices="tripinfo_veh40" vType="car" speedFactor="1.03" vaporized=""/>
    <tripinfo id="veh57" depart="40.00" departLane="5to3_0" departPos="2.10" departSpeed="0.00" departDelay="0.00" arrival="72.60" arrivalLane="3to4_1" arrivalPos="189.60" arrivalSpeed="17.14" duration="32.60" routeLength="397.90" waitingTime="0.00" waitingCount="0" stopTime="0.00" timeLoss="9.33" rerouteNo="0" devices="tripinfo_veh57" vType="car" speedFactor="1.14" vaporized=""/>
    <tripinfo id="veh50" depart="34.00" departLane="4to3_0" departPos="2.10" departSpeed="0.00" departDelay="0.00" arrival="73.30" arrivalLane="3to5_1" arrivalPos="189.60" arrivalSpeed="12.82" duration="39.30" routeLength="397.90" waitingTime="0.00" waitingCount="0" stopTime="0.00" timeLoss="8.19" rerouteNo="0" devices="tripinfo_veh50" vType="car" speedFactor="0.85" vaporized=""/>
    <tripinfo id="veh62" depart="44.00" departLane="4to3_0" departPos="2.10" departSpeed="0.00" departDelay="0.00" arrival="73.30" arrivalLane="3to5_0" arrivalPos="189.60" arrivalSpeed="15.24" duration="29.30" routeLength="397.90" waitingTime="0.00" waitingCount="0" stopTime="0.00" timeLoss="3.17" rerouteNo="0" devices="tripinfo_veh62" vType="car" speedFactor="1.02" vaporized=""/>
    <tripinfo id="veh47" depart="32.00" departLane="5to3_0" departPos="2.10" departSpeed="0.00" departDelay="0.00" arrival="74.10" arrivalLane="3to4_0" arrivalPos="189.60" arrivalSpeed="13.51" duration="42.10" routeLength="397.90" waitingTime="2.40" waitingCount="1" stopTime="0.00" timeLoss="12.61" rerouteNo="0" devices="tripinfo_veh47" vType="car" speedFactor="0.90" vaporized=""/>
    <tripinfo id="veh63" depart="44.00" departLane="5to3_0" departPos="2.10" departSpeed="0.00" departDelay="0.00" arrival="75.30" arrivalLane="3to4_0" arrivalPos="189.60" arrivalSpeed="14.80" duration="31.30" routeLength="397.90" waitingTime="0.00" waitingCount="0" stopTime="0.00" timeLoss="4.40" rerouteNo="0" devices="tripinfo_veh63" vType="car" speedFactor="0.99" vaporized=""/>
    <tripinfo id="veh66" depart="46.00" departLane="5to3_0" departPos="2.10" departSpeed="0.00" departDelay="0.00" arrival="76.70" arrivalLane="3to4_0" arrivalPos="189.60" arrivalSpeed="13.60" duration="30.70" routeLength="397.90" waitingTime="0.00" waitingCount="0" stopTime="0.00" timeLoss="1.44" rerouteNo="0" devices="tripinfo_veh66" vType="car" speedFactor="0.91" vaporized=""/>
    <tripinfo id="veh76" depart="54.00" departLane="5to3_0" departPos="2.10" departSpeed="0.00" departDelay="0.00" arrival="81.40" arrivalLane="3to4_0" arrivalPos="189.60" arrivalSpeed="15.49" duration="27.40" routeLength="397.90" waitingTime="0.00" waitingCount="0" stopTime="0.00" timeLoss="1.67" rerouteNo="0" devices="tripinfo_veh76" vType="car" speedFactor="1.03" vaporized=""/>
    <tripinfo id="veh75" depart="54.00" departLane="4to3_0" departPos="2.10" departSpeed="0.00" departDelay="0.00" arrival="82.40" arrivalLane="3to5_0" arrivalPos="189.60" arrivalSpeed="14.77" duration="28.40" routeLength="397.90" waitingTime="0.00" waitingCount="0" stopTime="0.00" timeLoss="1.46" rerouteNo="0" devices="tripinfo_veh75" vType="car" speedFactor="0.98" vaporized=""/>
    <tripinfo id="veh79" depart="56.00" departLane="4to3_0" departPos="2.10" departSpeed="0.00" departDelay="0.00" arrival="82.50" arrivalLane="3to5_1" arrivalPos="189.60" arrivalSpeed="16.30" duration="26.50" routeLength="397.90" waitingTime="0.00" waitingCount="0" stopTime="0.00" timeLoss="2.01" rerouteNo="0" devices="tripinfo_veh79" vType="car" speedFactor="1.09" vaporized=""/>
    <tripinfo id="veh82" depart="58.00" departLane="4to3_0" departPos="2.10" departSpeed="0.00" departDelay="0.00" arrival="85.70" arrivalLane="3to5_0" arrivalPos="189.60" arrivalSpeed="15.25" duration="27.70" routeLength="397.90" waitingTime="0.00" waitingCount="0" stopTime="0.00" timeLoss="1.57" rerouteNo="0" devices="tripinfo_veh82" vType="car" speedFactor="1.02" vaporized=""/>
    <tripinfo id="veh86" depart="60.00" departLane="5to3_0" departPos="2.10" departSpeed="0.00" departDelay="0.00" arrival="88.10" arrivalLane="3to4_0" arrivalPos="189.60" arrivalSpeed="15.03" duration="28.10" routeLength="397.90" waitingTime="0.00" waitingCount="0" stopTime="0.00" timeLoss="1.58" rerouteNo="0" devices="tripinfo_veh86" vType="car" speedFactor="1.00" vaporized=""/>
    <tripinfo id="veh85" depart="60.00" departLane="4to3_0" departPos="2.10" departSpeed="0.00" departDelay="0.00" arrival="88.70" arrivalLane="3to5_0" arrivalPos="189.60" arrivalSpeed="14.64" duration="28.70" routeLength="397.90" waitingTime="0.00" waitingCount="0" stopTime="0.00" timeLoss="1.44" rerouteNo="0" devices="tripinfo_veh85" vType="car" speedFactor="0.98" vaporized=""/>
    <tripinfo id="veh89" depart="62.00" departLane="5to3_0" departPos="2.10" departSpeed="0.00" departDelay="0.00" arrival="89.60" arrivalLane="3to4_0" arrivalPos="189.60" arrivalSpeed="15.33" duration="27.60" routeLength="397.90" waitingTime="0.00" waitingCount="0" stopTime="0.00" timeLoss="1.64" rerouteNo="0" devices="tripinfo_veh89" vType="car" speedFactor="1.02" vaporized=""/>
    <tripinfo id="veh95" depart="66.00" departLane="4to3_0" departPos="2.10" departSpeed="0.00" departDelay="0.00" arrival="92.90" arrivalLane="3to5_1" arrivalPos="189.60" arrivalSpeed="15.85" duration="26.90" routeLength="397.90" waitingTime="0.00" waitingCount="0" stopTime="0.00" timeLoss="1.76" rerouteNo="0" devices="tripinfo_veh95" vType="car" speedFactor="1.06" vaporized=""/>
    <tripinfo id="veh99" depart="68.00" departLane="5to3_0" departPos="2.10" departSpeed="0.00" departDelay="0.00" arrival="94.00" arrivalLane="3to4_0" arrivalPos="189.60" arrivalSpeed="16.46" duration="26.00" routeLength="397.90" waitingTime="0.00" waitingCount="0" stopTime="0.00" timeLoss="1.82" rerouteNo="0" devices="tripinfo_veh99" vType="car" speedFactor="1.10" vaporized=""/>
    <tripinfo id="veh98" depart="68.00" departLane="4to3_0" departPos="2.10" departSpeed="0.00" departDelay="0.00" arrival="94.10" arrivalLane="3to5_1" arrivalPos="189.60" arrivalSpeed="16.82" duration="26.10" routeLength="397.90" waitingTime="0.00" waitingCount="0" stopTime="0.00" timeLoss="2.44" rerouteNo="0" devices="tripinfo_veh98" vType="car" speedFactor="1.12" vaporized=""/>
    <tripinfo id="veh92" depart="64.00" departLane="4to3_0" departPos="2.10" departSpeed="0.00" departDelay="0.00" arrival="97.00" arrivalLane="3to5_0" arrivalPos="189.60" arrivalSpeed="12.50" duration="33.00" routeLength="397.90" waitingTime="0.00" waitingCount="0" stopTime="0.00" timeLoss="1.11" rerouteNo="0" devices="tripinfo_veh92" vType="car" speedFactor="0.83" vaporized=""/>
    <tripinfo id="veh61" depart="42.00" departLane="1to3_0" departPos="2.10" departSpeed="0.00" departDelay="0.00" arrival="98.00" arrivalLane="3to2_1" arrivalPos="189.60" arrivalSpeed="16.79" duration="56.00" routeLength="397.90" waitingTime="28.40" waitingCount="1" stopTime="0.00" timeLoss="32.24" rerouteNo="0" devices="tripinfo_veh61" vType="car" speedFactor="1.12" vaporized=""/>
    <tripinfo id="veh53" depart="36.00" departLane="2to3_0" departPos="2.10" departSpeed="0.00" departDelay="0.00" arrival="98.20" arrivalLane="3to1_1" arrivalPos="189.60" arrivalSpeed="16.44" duration="62.20" routeLength="397.90" waitingTime="34.30" waitingCount="1" stopTime="0.00" timeLoss="37.97" rerouteNo="0" devices="tripinfo_veh53" vType="car" speedFactor="1.10" vaporized=""/>
    <tripinfo id="veh54" depart="36.00" departLane="1to3_0" departPos="2.10" departSpeed="0.00" departDelay="0.00" arrival="99.30" arrivalLane="3to2_0" arrivalPos="189.60" arrivalSpeed="15.05" duration="63.30" routeLength="397.90" waitingTime="33.60" waitingCount="1" stopTime="0.00" timeLoss="36.81" rerouteNo="0" devices="tripinfo_veh54" vType="car" speedFactor="1.00" vaporized=""/>
    <tripinfo id="veh55" depart="38.00" departLane="2to3_0" departPos="2.10" departSpeed="0.00" departDelay="0.00" arrival="99.40" arrivalLane="3to1_0" arrivalPos="189.60" arrivalSpeed="14.94" duration="61.40" routeLength="397.90" waitingTime="31.50" waitingCount="1" stopTime="0.00" timeLoss="34.71" rerouteNo="0" devices="tripinfo_veh55" vType="car" speedFactor="1.00" vaporized=""/>
    <tripinfo id="veh60" depart="42.00" departLane="2to3_0" departPos="2.10" departSpeed="0.00" departDelay="0.00" arrival="99.50" arrivalLane="3to1_1" arrivalPos="189.60" arrivalSpeed="16.24" duration="57.50" routeLength="397.90" waitingTime="24.90" waitingCount="1" stopTime="0.00" timeLoss="32.98" rerouteNo="0" devices="tripinfo_veh60" vType="car" speedFactor="1.08" vaporized=""/>
    <tripinfo id="veh59" depart="40.00" departLane="1to3_0" departPos="2.10" departSpeed="0.00" departDelay="0.00" arrival="100.60" arrivalLane="3to2_1" arrivalPos="189.60" arrivalSpeed="14.54" duration="60.60" routeLength="397.90" waitingTime="25.10" waitingCount="1" stopTime="0.00" timeLoss="33.24" rerouteNo="0" devices="tripinfo_veh59" vType="car" speedFactor="0.97" vaporized=""/>
    <tripinfo id="veh58" depart="40.00" departLane="2to3_0" departPos="2.10" departSpeed="0.00" departDelay="0.00" arrival="100.70" arrivalLane="3to1_0" arrivalPos="189.60" arrivalSpeed="15.35" duration="60.70" routeLength="397.90" waitingTime="26.60" waitingCount="1" stopTime="0.00" timeLoss="34.69" rerouteNo="0" devices="tripinfo_veh58" vType="car" speedFactor="1.02" vaporized=""/>